                         Program Version 6.0.1  -  RELEASE   -
|  1> ! M062X TightSCF Def2-TZVP Opt Freq SlowConv XYZFile CPCM(methanol)
|  2> %pal nprocs 16 end
|  3> * xyz -1 2
|  4>   O           0.62893089084655      0.99699469684890     -1.12806101986277
|  5>   C           1.27340217463540      0.13760941926848     -0.56508172590544
|  6>   N           0.68794262945635     -1.00788197234636     -0.07816445554599
|  7>   O          -0.68846871334254     -1.03883362795477     -0.12046829499522
|  8>   C          -1.29491921709911     -0.20567436179222      0.78096005800335
|  9>   C          -2.76554068233527     -0.19655876247450      0.60270232633091
| 10>   C          -3.39097084256660     -0.89608237835550     -0.42661393514177
| 11>   C          -4.76973898859650     -0.84789764446759     -0.55698204571087
| 12>   C          -5.50444850246307     -0.09753490705210      0.34952127649023
| 13>   Br         -7.38928029007120     -0.02952480338862      0.17270985537300
| 14>   C          -4.89775811853722      0.60542628699571      1.38120726425641
| 15>   C          -3.51992871171059      0.55160204036218      1.50276898617832
| 16>   O          -0.68167735982800      0.40876153340204      1.60404205328787
| 17>   C           2.75228500824003      0.19853816427873     -0.38478858810409
| 18>   C           3.34942422622349      1.45667623152742     -0.39062441254266
| 19>   C           4.72044672811767      1.57238198579932     -0.22449820472763
| 20>   C           5.49905899288035      0.43155844495262     -0.06382736843852
| 21>   C           4.90589404508948     -0.82492062327245     -0.06901708094893
| 22>   C           3.53248552232195     -0.94507915200982     -0.22647521170511
| 23>   H           1.06395168543036     -1.45044737056227      0.75261837279645
| 24>   H          -2.80891047488279     -1.47578439297306     -1.12911967466518
| 25>   H          -5.26518012319769     -1.38444910335826     -1.35415904871155
| 26>   H          -5.49113691896293      1.18482751470095      2.07474659948259
| 27>   H          -3.02183796994757      1.09048441804215      2.29781822279776
| 28>   H           2.72970358463260      2.33457430195461     -0.51859245443697
| 29>   H           5.18296946089864      2.55081323841606     -0.22096007957623
| 30>   H           6.57059347958462      0.52216861444497      0.06077772761116
| 31>   H           5.51336138662580     -1.71361118092834      0.04145367236677
| 32>   H           3.07934709855779     -1.92813662005831     -0.25141333395591
| 33> *
| 34>
| 35>                          ****END OF INPUT****
 Total Charge           Charge          ....   -1
 Multiplicity           Mult            ....    2
 Number of Electrons    NEL             ....  161
FINAL SINGLE POINT ENERGY     -3394.175411584648
FINAL SINGLE POINT ENERGY     -3394.186454929467
FINAL SINGLE POINT ENERGY     -3394.191437368307
FINAL SINGLE POINT ENERGY     -3394.193139209928
FINAL SINGLE POINT ENERGY     -3394.192824458697
FINAL SINGLE POINT ENERGY     -3394.193924351793
FINAL SINGLE POINT ENERGY     -3394.194003903375
FINAL SINGLE POINT ENERGY     -3394.194069107182
FINAL SINGLE POINT ENERGY     -3394.194087772792
FINAL SINGLE POINT ENERGY     -3394.194100511490
FINAL SINGLE POINT ENERGY     -3394.194109588581
FINAL SINGLE POINT ENERGY     -3394.194112535974
FINAL SINGLE POINT ENERGY     -3394.194113525140
                    ***********************HURRAY********************

CARTESIAN COORDINATES (ANGSTROEM)
---------------------------------
  O      0.441375    0.791140   -1.172915
  C      1.228824   -0.027512   -0.639645
  N      0.704004   -1.331324   -0.254673
  O     -0.700293   -1.303799   -0.192810
  C     -1.212163   -0.518777    0.776457
  C     -2.674208   -0.315330    0.605633
  C     -3.317204   -0.608237   -0.594205
  C     -4.680091   -0.388356   -0.723312
  C     -5.383453    0.118074    0.359667
  Br    -7.248090    0.417143    0.190510
  C     -4.759730    0.415538    1.563373
  C     -3.396658    0.198673    1.678480
  O     -0.557648   -0.077854    1.684132
  C      2.614494    0.148560   -0.416434
  C      3.237487    1.382170   -0.792160
  C      4.578618    1.599217   -0.582019
  C      5.395408    0.617271    0.006992
  C      4.807794   -0.603547    0.366969
  C      3.465916   -0.848166    0.165686
  H      1.031026   -1.591340    0.674532
  H     -2.754253   -0.996355   -1.431797
  H     -5.186497   -0.606191   -1.653392
  H     -5.327901    0.809811    2.394470
  H     -2.886177    0.425386    2.605213
  H      2.624772    2.151201   -1.245346
  H      5.011758    2.548722   -0.877870
  H      6.449900    0.795264    0.169461
  H      5.420486   -1.381372    0.809955
  H      3.072506   -1.820011    0.437528

 Multiplicity           Mult            ....    2
 Number of Electrons    NEL             ....  161
 Basis Dimension        Dim             ....  666

ORBITAL ENERGIES
----------------
                 SPIN UP ORBITALS
  NO   OCC          E(Eh)            E(eV)
   0   1.0000    -485.384751    -13207.9906
   1   1.0000     -63.366624     -1724.2935
   2   1.0000     -57.185015     -1556.0834
   3   1.0000     -57.183535     -1556.0431
   4   1.0000     -57.183507     -1556.0423
   5   1.0000     -19.697110      -535.9856
   6   1.0000     -19.627013      -534.0782
   7   1.0000     -19.565342      -532.4000
   8   1.0000     -14.798298      -402.6821
   9   1.0000     -10.681733      -290.6647
  10   1.0000     -10.612258      -288.7742
  11   1.0000     -10.595738      -288.3247
  12   1.0000     -10.568007      -287.5701
  13   1.0000     -10.562476      -287.4196
  14   1.0000     -10.561886      -287.4035
  15   1.0000     -10.560452      -287.3645
  16   1.0000     -10.560351      -287.3618
  17   1.0000     -10.520548      -286.2787
  18   1.0000     -10.519267      -286.2438
  19   1.0000     -10.517409      -286.1932
  20   1.0000     -10.516795      -286.1765
  21   1.0000     -10.513849      -286.0964
  22   1.0000     -10.507257      -285.9170
  23   1.0000      -9.033369      -245.8105
  24   1.0000      -6.857102      -186.5912
  25   1.0000      -6.848959      -186.3696
  26   1.0000      -6.848585      -186.3595
  27   1.0000      -2.891088       -78.6705
  28   1.0000      -2.888199       -78.5919
  29   1.0000      -2.887803       -78.5811
  30   1.0000      -2.879901       -78.3661
  31   1.0000      -2.879881       -78.3656
  32   1.0000      -1.267899       -34.5013
  33   1.0000      -1.167604       -31.7721
  34   1.0000      -1.110861       -30.2281
  35   1.0000      -0.996503       -27.1162
  36   1.0000      -0.963347       -26.2140
  37   1.0000      -0.932078       -25.3631
  38   1.0000      -0.912234       -24.8232
  39   1.0000      -0.866142       -23.5689
  40   1.0000      -0.842216       -22.9179
  41   1.0000      -0.825816       -22.4716
  42   1.0000      -0.821824       -22.3630
  43   1.0000      -0.741013       -20.1640
  44   1.0000      -0.714713       -19.4483
  45   1.0000      -0.702173       -19.1071
  46   1.0000      -0.674745       -18.3607
  47   1.0000      -0.656269       -17.8580
  48   1.0000      -0.640411       -17.4265
  49   1.0000      -0.629940       -17.1415
  50   1.0000      -0.599688       -16.3183
  51   1.0000      -0.579375       -15.7656
  52   1.0000      -0.553093       -15.0504
  53   1.0000      -0.545481       -14.8433
  54   1.0000      -0.539694       -14.6858
  55   1.0000      -0.533481       -14.5168
  56   1.0000      -0.519516       -14.1368
  57   1.0000      -0.508486       -13.8366
  58   1.0000      -0.504034       -13.7155
  59   1.0000      -0.485183       -13.2025
  60   1.0000      -0.478866       -13.0306
  61   1.0000      -0.471870       -12.8402
  62   1.0000      -0.467479       -12.7207
  63   1.0000      -0.458661       -12.4808
  64   1.0000      -0.456298       -12.4165
  65   1.0000      -0.428520       -11.6606
  66   1.0000      -0.425144       -11.5688
  67   1.0000      -0.411506       -11.1976
  68   1.0000      -0.404984       -11.0202
  69   1.0000      -0.393611       -10.7107
  70   1.0000      -0.388046       -10.5593
  71   1.0000      -0.378628       -10.3030
  72   1.0000      -0.370474       -10.0811
  73   1.0000      -0.358006        -9.7418
  74   1.0000      -0.352907        -9.6031
  75   1.0000      -0.329513        -8.9665
  76   1.0000      -0.316197        -8.6041
  77   1.0000      -0.307827        -8.3764
  78   1.0000      -0.301809        -8.2126
  79   1.0000      -0.297127        -8.0852
  80   1.0000      -0.136460        -3.7133
  81   0.0000      -0.028606        -0.7784
  82   0.0000       0.004237         0.1153
  83   0.0000       0.036237         0.9861
  84   0.0000       0.040662         1.1065
  85   0.0000       0.079996         2.1768

                 SPIN DOWN ORBITALS
  NO   OCC          E(Eh)            E(eV)
   0   1.0000    -485.384751    -13207.9906
   1   1.0000     -63.366624     -1724.2935
   2   1.0000     -57.185016     -1556.0834
   3   1.0000     -57.183535     -1556.0431
   4   1.0000     -57.183506     -1556.0423
   5   1.0000     -19.696992      -535.9824
   6   1.0000     -19.627013      -534.0782
   7   1.0000     -19.561624      -532.2989
   8   1.0000     -14.797790      -402.6683
   9   1.0000     -10.681667      -290.6629
  10   1.0000     -10.612243      -288.7738
  11   1.0000     -10.594029      -288.2782
  12   1.0000     -10.568008      -287.5701
  13   1.0000     -10.562468      -287.4194
  14   1.0000     -10.561877      -287.4033
  15   1.0000     -10.560456      -287.3646
  16   1.0000     -10.560356      -287.3619
  17   1.0000     -10.521106      -286.2939
  18   1.0000     -10.519769      -286.2575
  19   1.0000     -10.516784      -286.1762
  20   1.0000     -10.515986      -286.1545
  21   1.0000     -10.512890      -286.0703
  22   1.0000     -10.505372      -285.8657
  23   1.0000      -9.033369      -245.8105
  24   1.0000      -6.857104      -186.5913
  25   1.0000      -6.848955      -186.3696
  26   1.0000      -6.848585      -186.3595
  27   1.0000      -2.891089       -78.6705
  28   1.0000      -2.888198       -78.5919
  29   1.0000      -2.887804       -78.5811
  30   1.0000      -2.879900       -78.3661
  31   1.0000      -2.879880       -78.3655
  32   1.0000      -1.267306       -34.4852
  33   1.0000      -1.167157       -31.7600
  34   1.0000      -1.100674       -29.9509
  35   1.0000      -0.996328       -27.1115
  36   1.0000      -0.960154       -26.1271
  37   1.0000      -0.928984       -25.2789
  38   1.0000      -0.911749       -24.8100
  39   1.0000      -0.866090       -23.5675
  40   1.0000      -0.840346       -22.8670
  41   1.0000      -0.821570       -22.3560
  42   1.0000      -0.818704       -22.2781
  43   1.0000      -0.737710       -20.0741
  44   1.0000      -0.714598       -19.4452
  45   1.0000      -0.696174       -18.9439
  46   1.0000      -0.672393       -18.2967
  47   1.0000      -0.654186       -17.8013
  48   1.0000      -0.637776       -17.3548
  49   1.0000      -0.628303       -17.0970
  50   1.0000      -0.597618       -16.2620
  51   1.0000      -0.578238       -15.7347
  52   1.0000      -0.550497       -14.9798
  53   1.0000      -0.544549       -14.8179
  54   1.0000      -0.537780       -14.6337
  55   1.0000      -0.532576       -14.4921
  56   1.0000      -0.516357       -14.0508
  57   1.0000      -0.508247       -13.8301
  58   1.0000      -0.499139       -13.5823
  59   1.0000      -0.483992       -13.1701
  60   1.0000      -0.472275       -12.8513
  61   1.0000      -0.469556       -12.7773
  62   1.0000      -0.465134       -12.6569
  63   1.0000      -0.454524       -12.3682
  64   1.0000      -0.442779       -12.0486
  65   1.0000      -0.428255       -11.6534
  66   1.0000      -0.424757       -11.5582
  67   1.0000      -0.403091       -10.9687
  68   1.0000      -0.398537       -10.8447
  69   1.0000      -0.390902       -10.6370
  70   1.0000      -0.387898       -10.5552
  71   1.0000      -0.376175       -10.2363
  72   1.0000      -0.367690       -10.0054
  73   1.0000      -0.357851        -9.7376
  74   1.0000      -0.337527        -9.1846
  75   1.0000      -0.329351        -8.9621
  76   1.0000      -0.311087        -8.4651
  77   1.0000      -0.305539        -8.3141
  78   1.0000      -0.289331        -7.8731
  79   1.0000      -0.273470        -7.4415
  80   0.0000      -0.028757        -0.7825
  81   0.0000       0.003413         0.0929
  82   0.0000       0.004287         0.1167
  83   0.0000       0.036271         0.9870
  84   0.0000       0.042721         1.1625

MULLIKEN ATOMIC CHARGES AND SPIN POPULATIONS
--------------------------------------------
   0 O :   -0.583408    0.173530
   1 C :    0.193574    0.238971
   2 N :   -0.231888    0.013085
   3 O :   -0.233459   -0.001403
   4 C :    0.341119    0.008629
   5 C :    0.098203   -0.001311
   6 C :   -0.208662    0.000939
   7 C :   -0.170017   -0.001095
   8 C :    0.053327    0.002284
   9 Br:   -0.102924    0.000098
  10 C :   -0.163945   -0.001139
  11 C :   -0.200529    0.002206
  12 O :   -0.392196   -0.000538
  13 C :    0.077565    0.025880
  14 C :   -0.330917    0.214277
  15 C :   -0.164464   -0.113492
  16 C :   -0.310862    0.347303
  17 C :   -0.189655   -0.123879
  18 C :   -0.337268    0.234040
  19 H :    0.264162    0.005929
  20 H :    0.197657   -0.000022
  21 H :    0.198227   -0.000027
  22 H :    0.197999   -0.000015
  23 H :    0.191108    0.000095
  24 H :    0.157909   -0.006335
  25 H :    0.158295    0.001252
  26 H :    0.162883   -0.012435
  27 H :    0.158008    0.001819
  28 H :    0.170157   -0.008650
Sum of atomic charges         :   -1.0000000

LOEWDIN ATOMIC CHARGES AND SPIN POPULATIONS
-------------------------------------------
   0 O :   -0.105623    0.159754
   1 C :   -0.486215    0.221819
   2 N :   -0.022643    0.030286
   3 O :    0.208448    0.003589
   4 C :   -0.455889    0.004893
   5 C :   -0.130801    0.000808
   6 C :   -0.080244    0.001045
   7 C :   -0.135696   -0.000114
   8 C :   -0.382033    0.001209
   9 Br:    0.347899    0.000199
  10 C :   -0.135640   -0.000102
  11 C :   -0.073090    0.001105
  12 O :    0.084599    0.000631
  13 C :   -0.206683    0.110374
  14 C :   -0.160857    0.120649
  15 C :   -0.195130    0.005881
  16 C :   -0.234188    0.201347
  17 C :   -0.194765    0.001109
  18 C :   -0.177191    0.130713
  19 H :    0.174311    0.005057
  20 H :    0.164239    0.000032
  21 H :    0.160489    0.000001
  22 H :    0.160394    0.000004
  23 H :    0.165085    0.000014
  24 H :    0.142865   -0.000217
  25 H :    0.144150   -0.000156
  26 H :    0.136564    0.000078
  27 H :    0.144920   -0.000157
  28 H :    0.142725    0.000148

  Mayer bond orders larger than 0.100000
B(  0-O ,  1-C ) :   1.8142 B(  0-O , 13-C ) :  -0.1109 B(  1-C ,  2-N ) :   0.9870
B(  1-C , 13-C ) :   1.2885 B(  2-N ,  3-O ) :   0.8385 B(  2-N , 19-H ) :   0.8912
B(  3-O ,  4-C ) :   1.1449 B(  4-C ,  5-C ) :   0.9844 B(  4-C , 12-O ) :   1.9947
B(  5-C ,  6-C ) :   1.3698 B(  5-C , 11-C ) :   1.3760 B(  6-C ,  7-C ) :   1.4639
B(  6-C , 20-H ) :   0.9230 B(  7-C ,  8-C ) :   1.3564 B(  7-C , 21-H ) :   0.9353
B(  8-C ,  9-Br) :   1.1012 B(  8-C , 10-C ) :   1.3507 B( 10-C , 11-C ) :   1.4654
B( 10-C , 22-H ) :   0.9371 B( 11-C , 23-H ) :   0.9247 B( 13-C , 14-C ) :   1.1734
B( 13-C , 18-C ) :   1.1622 B( 14-C , 15-C ) :   1.5886 B( 14-C , 24-H ) :   0.9419
B( 15-C , 16-C ) :   1.3203 B( 15-C , 25-H ) :   0.9608 B( 16-C , 17-C ) :   1.3515
B( 16-C , 26-H ) :   0.9667 B( 17-C , 18-C ) :   1.5719 B( 17-C , 27-H ) :   0.9582
B( 18-C , 28-H ) :   0.9313

FINAL SINGLE POINT ENERGY     -3394.194113670162

DIPOLE MOMENT
-------------

Method             : SCF
Type of density    : Electron Density
Multiplicity       :   2
Irrep              :   0
Energy             : -3394.1941136701616415 Eh
Relativity type    :
Basis              : AO
                                X                 Y                 Z
Electronic contribution:    -81.197958530       2.517671992       1.486027222
Nuclear contribution   :     74.548843616      -3.583831615      -0.017536866
                        -----------------------------------------
Total Dipole Moment    :     -6.649114913      -1.066159623       1.468490355
                        -----------------------------------------
Magnitude (a.u.)       :      6.892306537
Magnitude (Debye)      :     17.518850971

VIBRATIONAL FREQUENCIES
-----------------------

Scaling factor for frequencies =  1.000000000  (already applied!)

     0:       0.00 cm**-1
     1:       0.00 cm**-1
     2:       0.00 cm**-1
     3:       0.00 cm**-1
     4:       0.00 cm**-1
     5:       0.00 cm**-1
     6:      21.38 cm**-1
     7:      26.49 cm**-1
     8:      50.64 cm**-1
     9:      69.38 cm**-1
    10:      92.43 cm**-1
    11:     103.36 cm**-1
    12:     126.98 cm**-1
    13:     150.07 cm**-1
    14:     173.16 cm**-1
    15:     227.44 cm**-1
    16:     257.15 cm**-1
    17:     264.26 cm**-1
    18:     320.07 cm**-1
    19:     348.40 cm**-1
    20:     367.25 cm**-1
    21:     394.13 cm**-1
    22:     420.76 cm**-1
    23:     438.40 cm**-1
    24:     456.76 cm**-1
    25:     483.14 cm**-1
    26:     499.31 cm**-1
    27:     518.33 cm**-1
    28:     582.16 cm**-1
    29:     626.24 cm**-1
    30:     639.49 cm**-1
    31:     665.43 cm**-1
    32:     683.14 cm**-1
    33:     709.47 cm**-1
    34:     715.39 cm**-1
    35:     734.40 cm**-1
    36:     766.99 cm**-1
    37:     780.73 cm**-1
    38:     804.95 cm**-1
    39:     830.15 cm**-1
    40:     866.04 cm**-1
    41:     879.88 cm**-1
    42:     890.93 cm**-1
    43:     904.92 cm**-1
    44:     981.03 cm**-1
    45:     982.74 cm**-1
    46:     990.55 cm**-1
    47:    1007.01 cm**-1
    48:    1009.09 cm**-1
    49:    1019.53 cm**-1
    50:    1025.84 cm**-1
    51:    1027.51 cm**-1
    52:    1075.55 cm**-1
    53:    1101.67 cm**-1
    54:    1104.71 cm**-1
    55:    1133.62 cm**-1
    56:    1146.43 cm**-1
    57:    1155.11 cm**-1
    58:    1196.88 cm**-1
    59:    1198.70 cm**-1
    60:    1294.39 cm**-1
    61:    1303.54 cm**-1
    62:    1315.20 cm**-1
    63:    1330.47 cm**-1
    64:    1335.01 cm**-1
    65:    1344.80 cm**-1
    66:    1440.52 cm**-1
    67:    1450.55 cm**-1
    68:    1480.78 cm**-1
    69:    1503.07 cm**-1
    70:    1533.25 cm**-1
    71:    1542.22 cm**-1
    72:    1598.71 cm**-1
    73:    1647.69 cm**-1
    74:    1660.50 cm**-1
    75:    1680.82 cm**-1
    76:    1803.82 cm**-1
    77:    3181.07 cm**-1
    78:    3183.40 cm**-1
    79:    3207.11 cm**-1
    80:    3213.33 cm**-1
    81:    3221.94 cm**-1
    82:    3226.69 cm**-1
    83:    3231.68 cm**-1
    84:    3240.02 cm**-1
    85:    3245.44 cm**-1
    86:    3477.18 cm**-1

IR SPECTRUM
-----------

 Mode   freq       eps      Int      T**2         TX        TY        TZ
       cm**-1   L/(mol*cm) km/mol    a.u.
----------------------------------------------------------------------------
  6:     21.38   0.000630    3.18  0.009199  (-0.075135 -0.047644 -0.035832)
  7:     26.49   0.000478    2.41  0.005626  ( 0.037093 -0.005416 -0.064966)
  8:     50.64   0.000205    1.04  0.001264  (-0.008160 -0.026609 -0.022120)
  9:     69.38   0.001211    6.12  0.005449  ( 0.063593  0.034156 -0.015446)
 10:     92.43   0.000824    4.16  0.002782  ( 0.015351  0.019390 -0.046584)
 11:    103.36   0.000177    0.89  0.000533  (-0.016649  0.002747 -0.015772)
 12:    126.98   0.002144   10.83  0.005268  ( 0.053776 -0.044952 -0.018853)
 13:    150.07   0.001035    5.23  0.002153  ( 0.011692 -0.015166 -0.042265)
 14:    173.16   0.000585    2.96  0.001055  ( 0.015736  0.028389 -0.001198)
 15:    227.44   0.001064    5.38  0.001459  (-0.036774 -0.000645 -0.010326)
 16:    257.15   0.003175   16.04  0.003853  ( 0.058832  0.008278 -0.017977)
 17:    264.26   0.002503   12.65  0.002955  ( 0.007958 -0.053739 -0.002049)
 18:    320.07   0.006417   32.43  0.006257  (-0.076169  0.015063  0.015102)
 19:    348.40   0.001970    9.96  0.001765  ( 0.020414 -0.033503 -0.015015)
 20:    367.25   0.001141    5.77  0.000970  (-0.023892 -0.017813 -0.009042)
 21:    394.13   0.009226   46.63  0.007305  (-0.068481  0.037820  0.034425)
 22:    420.76   0.000053    0.27  0.000039  ( 0.004862  0.003947 -0.000119)
 23:    438.40   0.000049    0.25  0.000035  ( 0.004991 -0.002157  0.002259)
 24:    456.76   0.000593    3.00  0.000405  (-0.018060 -0.001263 -0.008782)
 25:    483.14   0.001834    9.27  0.001185  ( 0.026202  0.021751 -0.005001)
 26:    499.31   0.002052   10.37  0.001283  (-0.014759 -0.025710  0.020093)
 27:    518.33   0.003409   17.23  0.002052  (-0.042704  0.014620 -0.003881)
 28:    582.16   0.012443   62.88  0.006670  (-0.025053 -0.034473  0.069670)
 29:    626.24   0.000196    0.99  0.000098  (-0.005708 -0.006901  0.004185)
 30:    639.49   0.000426    2.15  0.000208  (-0.007596  0.001920  0.012105)
 31:    665.43   0.001877    9.48  0.000880  (-0.000976 -0.004401 -0.029323)
 32:    683.14   0.024502  123.82  0.011192  ( 0.020083 -0.034892 -0.097835)
 33:    709.47   0.012171   61.51  0.005354  ( 0.033966  0.064523 -0.006050)
 34:    715.39   0.013749   69.48  0.005998  (-0.031847 -0.057693 -0.040679)
 35:    734.40   0.001428    7.22  0.000607  ( 0.003973  0.019131 -0.015004)
 36:    766.99   0.044362  224.19  0.018049  (-0.113218 -0.072277 -0.002645)
 37:    780.73   0.010785   54.50  0.004311  (-0.000098  0.057565 -0.031578)
 38:    804.95   0.002700   13.65  0.001047  ( 0.026057  0.008082 -0.017394)
 39:    830.15   0.003213   16.24  0.001208  (-0.016054  0.011504  0.028597)
 40:    866.04   0.000168    0.85  0.000060  ( 0.001937 -0.007523 -0.000297)
 41:    879.88   0.012507   63.21  0.004436  (-0.009974 -0.065196  0.009271)
 42:    890.93   0.025291  127.81  0.008858  (-0.041895 -0.079665  0.027510)
 43:    904.92   0.003646   18.43  0.001257  (-0.004650  0.034948  0.003790)
 44:    981.03   0.022962  116.04  0.007304  ( 0.085212 -0.001407  0.006402)
 45:    982.74   0.014836   74.98  0.004711  ( 0.067631 -0.009912  0.006242)
 46:    990.55   0.000027    0.14  0.000009  (-0.001751  0.001041 -0.002094)
 47:   1007.01   0.026497  133.90  0.008211  ( 0.090529  0.003619  0.001592)
 48:   1009.09   0.012754   64.45  0.003944  ( 0.062660  0.002569 -0.003358)
 49:   1019.53   0.000020    0.10  0.000006  (-0.001685 -0.000570  0.001695)
 50:   1025.84   0.022382  113.11  0.006809  ( 0.080793 -0.012014 -0.011693)
 51:   1027.51   0.005417   27.37  0.001645  (-0.038731 -0.001793 -0.011905)
 52:   1075.55   0.016846   85.13  0.004888  ( 0.050907  0.005844 -0.047561)
 53:   1101.67   0.006402   32.35  0.001813  ( 0.041512 -0.009368 -0.001537)
 54:   1104.71   0.014154   71.53  0.003998  (-0.062501  0.009508  0.001228)
 55:   1133.62   0.004009   20.26  0.001104  ( 0.014189 -0.019056 -0.023221)
 56:   1146.43   0.007768   39.26  0.002114  ( 0.021667 -0.036015  0.018651)
 57:   1155.11   0.027470  138.82  0.007421  (-0.068251  0.041187  0.032657)
 58:   1196.88   0.000923    4.67  0.000241  ( 0.012064  0.008182  0.005319)
 59:   1198.70   0.016832   85.06  0.004382  (-0.064948  0.010662  0.007075)
 60:   1294.39   0.088591  447.70  0.021358  ( 0.129030 -0.031421 -0.061011)
 61:   1303.54   0.033436  168.97  0.008004  ( 0.082689 -0.033554  0.006409)
 62:   1315.20   0.005730   28.96  0.001360  ( 0.034095  0.009004  0.010775)
 63:   1330.47   0.024784  125.25  0.005813  ( 0.006792 -0.072963  0.021056)
 64:   1335.01   0.031617  159.78  0.007391  ( 0.052261 -0.065517  0.019154)
 65:   1344.80   0.003933   19.88  0.000913  (-0.005276 -0.023626  0.018073)
 66:   1440.52   0.009359   47.29  0.002027  ( 0.031388 -0.016983 -0.027455)
 67:   1450.55   0.007957   40.21  0.001712  (-0.030116  0.019158 -0.020926)
 68:   1480.78   0.002077   10.50  0.000438  (-0.008310 -0.015044  0.011934)
 69:   1503.07   0.026417  133.50  0.005485  ( 0.061496 -0.028619  0.029727)
 70:   1533.25   0.008985   45.41  0.001829  ( 0.040068  0.000598  0.014929)
 71:   1542.22   0.014261   72.07  0.002886  ( 0.046628 -0.019184  0.018536)
 72:   1598.71   0.225462  1139.39  0.044010  ( 0.203311 -0.006949  0.051245)
 73:   1647.69   0.000296    1.50  0.000056  (-0.007143  0.001186  0.001916)
 74:   1660.50   0.030647  154.88  0.005760  ( 0.073774 -0.015642  0.008502)
 75:   1680.82   0.036987  186.92  0.006867  (-0.060722  0.027844 -0.049037)
 76:   1803.82   0.095093  480.56  0.016451  (-0.053696 -0.041021 -0.109019)
 77:   3181.07   0.003737   18.88  0.000367  (-0.018383 -0.005329 -0.000495)
 78:   3183.40   0.004614   23.32  0.000452  ( 0.004920 -0.018870  0.008487)
 79:   3207.11   0.004366   22.07  0.000425  (-0.004706 -0.018930  0.006662)
 80:   3213.33   0.002416   12.21  0.000235  (-0.002196  0.013548 -0.006804)
 81:   3221.94   0.001574    7.95  0.000152  ( 0.011847  0.002961  0.001830)
 82:   3226.69   0.000076    0.39  0.000007  (-0.002684  0.000392  0.000182)
 83:   3231.68   0.000023    0.12  0.000002  ( 0.000531 -0.000196  0.001394)
 84:   3240.02   0.000091    0.46  0.000009  (-0.001564 -0.001051 -0.002285)
 85:   3245.44   0.000112    0.57  0.000011  (-0.001908  0.001556  0.002173)
 86:   3477.18   0.007011   35.43  0.000629  ( 0.017393 -0.000078  0.018075)

--------------------------
THERMOCHEMISTRY AT 298.15K
--------------------------

Temperature         ...   298.15 K
Pressure            ...     1.00 atm
Total Mass          ...   320.14 AMU
Quasi RRHO          ...     True
Cut-Off Frequency   ...     1.00 cm^-1

Throughout the following assumptions are being made:
  (1) The electronic state is orbitally nondegenerate
      but the spin degeneracy is treated
  (2) There are no thermally accessible electronically excited states
  (3) Hindered rotations indicated by low frequency modes are not
      treated as such but are treated as vibrations and this may
      cause some error
  (4) All equations used are the standard statistical mechanics
      equations for an ideal gas
  (5) All vibrations are strictly harmonic

freq.      21.38  E(vib)   ...       0.56
freq.      26.49  E(vib)   ...       0.56
freq.      50.64  E(vib)   ...       0.52
freq.      69.38  E(vib)   ...       0.50
freq.      92.43  E(vib)   ...       0.47
freq.     103.36  E(vib)   ...       0.46
freq.     126.98  E(vib)   ...       0.43
freq.     150.07  E(vib)   ...       0.40
freq.     173.16  E(vib)   ...       0.38
freq.     227.44  E(vib)   ...       0.33
freq.     257.15  E(vib)   ...       0.30
freq.     264.26  E(vib)   ...       0.29
freq.     320.07  E(vib)   ...       0.25
freq.     348.40  E(vib)   ...       0.23
freq.     367.25  E(vib)   ...       0.22
freq.     394.13  E(vib)   ...       0.20
freq.     420.76  E(vib)   ...       0.18
freq.     438.40  E(vib)   ...       0.17
freq.     456.76  E(vib)   ...       0.16
freq.     483.14  E(vib)   ...       0.15
freq.     499.31  E(vib)   ...       0.14
freq.     518.33  E(vib)   ...       0.13
freq.     582.16  E(vib)   ...       0.11
freq.     626.24  E(vib)   ...       0.09
freq.     639.49  E(vib)   ...       0.09
freq.     665.43  E(vib)   ...       0.08
freq.     683.14  E(vib)   ...       0.08
freq.     709.47  E(vib)   ...       0.07
freq.     715.39  E(vib)   ...       0.07
freq.     734.40  E(vib)   ...       0.06
freq.     766.99  E(vib)   ...       0.06
freq.     780.73  E(vib)   ...       0.05
freq.     804.95  E(vib)   ...       0.05
freq.     830.15  E(vib)   ...       0.04
freq.     866.04  E(vib)   ...       0.04
freq.     879.88  E(vib)   ...       0.04
freq.     890.93  E(vib)   ...       0.04
freq.     904.92  E(vib)   ...       0.03
freq.     981.03  E(vib)   ...       0.02
freq.     982.74  E(vib)   ...       0.02
freq.     990.55  E(vib)   ...       0.02
freq.    1007.01  E(vib)   ...       0.02
freq.    1009.09  E(vib)   ...       0.02
freq.    1019.53  E(vib)   ...       0.02
freq.    1025.84  E(vib)   ...       0.02
freq.    1027.51  E(vib)   ...       0.02
freq.    1075.55  E(vib)   ...       0.02
freq.    1101.67  E(vib)   ...       0.02
freq.    1104.71  E(vib)   ...       0.02
freq.    1133.62  E(vib)   ...       0.01
freq.    1146.43  E(vib)   ...       0.01
freq.    1155.11  E(vib)   ...       0.01
freq.    1196.88  E(vib)   ...       0.01
freq.    1198.70  E(vib)   ...       0.01
freq.    1294.39  E(vib)   ...       0.01
freq.    1303.54  E(vib)   ...       0.01
freq.    1315.20  E(vib)   ...       0.01
freq.    1330.47  E(vib)   ...       0.01
freq.    1335.01  E(vib)   ...       0.01
freq.    1344.80  E(vib)   ...       0.01
freq.    1440.52  E(vib)   ...       0.00
freq.    1450.55  E(vib)   ...       0.00
freq.    1480.78  E(vib)   ...       0.00
freq.    1503.07  E(vib)   ...       0.00
freq.    1533.25  E(vib)   ...       0.00
freq.    1542.22  E(vib)   ...       0.00
freq.    1598.71  E(vib)   ...       0.00
freq.    1647.69  E(vib)   ...       0.00
freq.    1660.50  E(vib)   ...       0.00
freq.    1680.82  E(vib)   ...       0.00
freq.    1803.82  E(vib)   ...       0.00
freq.    3181.07  E(vib)   ...       0.00
freq.    3183.40  E(vib)   ...       0.00
freq.    3207.11  E(vib)   ...       0.00
freq.    3213.33  E(vib)   ...       0.00
freq.    3221.94  E(vib)   ...       0.00
freq.    3226.69  E(vib)   ...       0.00
freq.    3231.68  E(vib)   ...       0.00
freq.    3240.02  E(vib)   ...       0.00
freq.    3245.44  E(vib)   ...       0.00
freq.    3477.18  E(vib)   ...       0.00

------------
INNER ENERGY
------------

The inner energy is: U= E(el) + E(ZPE) + E(vib) + E(rot) + E(trans)
    E(el)   - is the total energy from the electronic structure calculation
              = E(kin-el) + E(nuc-el) + E(el-el) + E(nuc-nuc)
    E(ZPE)  - the the zero temperature vibrational energy from the frequency calculation
    E(vib)  - the the finite temperature correction to E(ZPE) due to population
              of excited vibrational states
    E(rot)  - is the rotational thermal energy
    E(trans)- is the translational thermal energy

Summary of contributions to the inner energy U:
Electronic energy                ...  -3394.19411367 Eh
Zero point energy                ...      0.21127445 Eh     132.58 kcal/mol
Thermal vibrational correction   ...      0.01332542 Eh       8.36 kcal/mol
Thermal rotational correction    ...      0.00141627 Eh       0.89 kcal/mol
Thermal translational correction ...      0.00141627 Eh       0.89 kcal/mol
-----------------------------------------------------------------------
Total thermal energy                  -3393.96668126 Eh

Summary of corrections to the electronic energy:
(perhaps to be used in another calculation)
Total thermal correction                  0.01615796 Eh      10.14 kcal/mol
Non-thermal (ZPE) correction              0.21127445 Eh     132.58 kcal/mol
-----------------------------------------------------------------------
Total correction                          0.22743241 Eh     142.72 kcal/mol

--------
ENTHALPY
--------

The enthalpy is H = U + kB*T
                kB is Boltzmann's constant
Total thermal energy              ...  -3393.96668126 Eh
Thermal Enthalpy correction       ...      0.00094421 Eh       0.59 kcal/mol
-----------------------------------------------------------------------
Total Enthalpy                    ...  -3393.96573705 Eh

Note: Only C1 symmetry has been detected, increase convergence thresholds
      if your molecule has a higher symmetry. Symmetry factor of 1.0 is
      used for the rotational entropy correction.

Note: Rotational entropy computed according to Herzberg
Infrared and Raman Spectra, Chapter V,1, Van Nostrand Reinhold, 1945
Point Group:  C1, Symmetry Number:   1
Rotational constants in cm-1:     0.046387     0.002787     0.002764

Vibrational entropy computed according to the QRRHO of S. Grimme
Chem.Eur.J. 2012 18 9955 using a reference frequency of 100.0 cm-1

-------
ENTROPY

                             ****ORCA TERMINATED NORMALLY****
TOTAL RUN TIME: 0 days 1 hours 47 minutes 30 seconds 368 msec
