                         Program Version 6.0.1  -  RELEASE   -
|  1> ! M062X TightSCF Def2-TZVP Opt Freq SlowConv XYZFile CPCM(methanol)
|  2> %pal nprocs 16 end
|  3> * xyz 0 1
|  4> O 0.94453189 0.39820890 -1.91970118
|  5> C 1.41324380 -0.09735652 -0.89934269
|  6> N 0.68192267 -0.81834902 0.02070393
|  7> O -0.72028834 -0.71405244 -0.19734427
|  8> C -1.38880152 -0.47478249 0.96421746
|  9> C -2.84452108 -0.30699837 0.71654580
| 10> C -3.38437428 -0.24813988 -0.57659943
| 11> C -4.76181476 -0.08586537 -0.75515150
| 12> C -5.59794092 0.01931885 0.35568048
| 13> Br -7.45921001 0.23854108 0.11097736
| 14> C -5.07170351 -0.03389534 1.64539926
| 15> C -3.69528473 -0.19558368 1.82581113
| 16> O -0.86083793 -0.41777314 2.06669396
| 17> C 2.85116269 0.10798454 -0.56170649
| 18> C 3.52450226 1.18904879 -1.14617818
| 19> C 4.87024600 1.42028648 -0.85612481
| 20> C 5.55189147 0.56898020 0.01216581
| 21> C 4.89288625 -0.51777851 0.58644901
| 22> C 3.54568690 -0.75304366 0.29968030
| 23> H 0.94897995 -0.79049942 1.00384031
| 24> H -2.74761599 -0.32004381 -1.45661728
| 25> H -5.16908249 -0.04035817 -1.76246610
| 26> H -5.72033809 0.05039712 2.51385447
| 27> H -3.29020718 -0.23410634 2.83573155
| 28> H 3.00084731 1.85616849 -1.82869690
| 29> H 5.38599005 2.26266672 -1.31070961
| 30> H 6.60111805 0.74833108 0.23502938
| 31> H 5.43253983 -1.18739454 1.25220946
| 32> H 3.06647171 -1.62391156 0.73812825
| 33> *
| 34>
| 35>                          ****END OF INPUT****
 Total Charge           Charge          ....    0
 Multiplicity           Mult            ....    1
 Number of Electrons    NEL             ....  160
FINAL SINGLE POINT ENERGY     -3394.104023742064
FINAL SINGLE POINT ENERGY     -3394.108742468023
FINAL SINGLE POINT ENERGY     -3394.109213578443
FINAL SINGLE POINT ENERGY     -3394.109661649090
FINAL SINGLE POINT ENERGY     -3394.109694439609
FINAL SINGLE POINT ENERGY     -3394.109712450371
FINAL SINGLE POINT ENERGY     -3394.109728237397
FINAL SINGLE POINT ENERGY     -3394.109746026856
FINAL SINGLE POINT ENERGY     -3394.109758319954
FINAL SINGLE POINT ENERGY     -3394.109766122277
FINAL SINGLE POINT ENERGY     -3394.111854640597
FINAL SINGLE POINT ENERGY     -3394.112265565745
FINAL SINGLE POINT ENERGY     -3394.112126236186
FINAL SINGLE POINT ENERGY     -3394.112482065043
FINAL SINGLE POINT ENERGY     -3394.112534744454
FINAL SINGLE POINT ENERGY     -3394.112616507044
FINAL SINGLE POINT ENERGY     -3394.112640338603
FINAL SINGLE POINT ENERGY     -3394.112661883381
FINAL SINGLE POINT ENERGY     -3394.112663012785
                    ***********************HURRAY********************

CARTESIAN COORDINATES (ANGSTROEM)
---------------------------------
  O      0.628931    0.996995   -1.128061
  C      1.273402    0.137609   -0.565082
  N      0.687943   -1.007882   -0.078164
  O     -0.688469   -1.038834   -0.120468
  C     -1.294919   -0.205674    0.780960
  C     -2.765541   -0.196559    0.602702
  C     -3.390971   -0.896082   -0.426614
  C     -4.769739   -0.847898   -0.556982
  C     -5.504449   -0.097535    0.349521
  Br    -7.389280   -0.029525    0.172710
  C     -4.897758    0.605426    1.381207
  C     -3.519929    0.551602    1.502769
  O     -0.681677    0.408762    1.604042
  C      2.752285    0.198538   -0.384789
  C      3.349424    1.456676   -0.390624
  C      4.720447    1.572382   -0.224498
  C      5.499059    0.431558   -0.063827
  C      4.905894   -0.824921   -0.069017
  C      3.532486   -0.945079   -0.226475
  H      1.063952   -1.450447    0.752618
  H     -2.808910   -1.475784   -1.129120
  H     -5.265180   -1.384449   -1.354159
  H     -5.491137    1.184828    2.074747
  H     -3.021838    1.090484    2.297818
  H      2.729704    2.334574   -0.518592
  H      5.182969    2.550813   -0.220960
  H      6.570593    0.522169    0.060778
  H      5.513361   -1.713611    0.041454
  H      3.079347   -1.928137   -0.251413

 Multiplicity           Mult            ....    1
 Number of Electrons    NEL             ....  160
 Basis Dimension        Dim             ....  666

ORBITAL ENERGIES
----------------

  NO   OCC          E(Eh)            E(eV)
   0   2.0000    -485.387992    -13208.0788
   1   2.0000     -63.369844     -1724.3811
   2   2.0000     -57.188238     -1556.1711
   3   2.0000     -57.186742     -1556.1304
   4   2.0000     -57.186728     -1556.1300
   5   2.0000     -19.724045      -536.7185
   6   2.0000     -19.643270      -534.5205
   7   2.0000     -19.623096      -533.9716
   8   2.0000     -14.839516      -403.8038
   9   2.0000     -10.697962      -291.1064
  10   2.0000     -10.669533      -290.3328
  11   2.0000     -10.617476      -288.9162
  12   2.0000     -10.576271      -287.7950
  13   2.0000     -10.569195      -287.6024
  14   2.0000     -10.568105      -287.5728
  15   2.0000     -10.566533      -287.5300
  16   2.0000     -10.565113      -287.4914
  17   2.0000     -10.565031      -287.4891
  18   2.0000     -10.558130      -287.3013
  19   2.0000     -10.555137      -287.2199
  20   2.0000     -10.552997      -287.1616
  21   2.0000     -10.550752      -287.1006
  22   2.0000     -10.550203      -287.0856
  23   2.0000      -9.036612      -245.8987
  24   2.0000      -6.860374      -186.6803
  25   2.0000      -6.852186      -186.4575
  26   2.0000      -6.851776      -186.4463
  27   2.0000      -2.894375       -78.7600
  28   2.0000      -2.891437       -78.6800
  29   2.0000      -2.891032       -78.6690
  30   2.0000      -2.883092       -78.4529
  31   2.0000      -2.883080       -78.4526
  32   2.0000      -1.298239       -35.3269
  33   2.0000      -1.197192       -32.5772
  34   2.0000      -1.176603       -32.0170
  35   2.0000      -1.013371       -27.5752
  36   2.0000      -0.997009       -27.1300
  37   2.0000      -0.974590       -26.5199
  38   2.0000      -0.921412       -25.0729
  39   2.0000      -0.873387       -23.7661
  40   2.0000      -0.869966       -23.6730
  41   2.0000      -0.857155       -23.3244
  42   2.0000      -0.844216       -22.9723
  43   2.0000      -0.772103       -21.0100
  44   2.0000      -0.723367       -19.6838
  45   2.0000      -0.719089       -19.5674
  46   2.0000      -0.703079       -19.1317
  47   2.0000      -0.692561       -18.8455
  48   2.0000      -0.687283       -18.7019
  49   2.0000      -0.642496       -17.4832
  50   2.0000      -0.634888       -17.2762
  51   2.0000      -0.602446       -16.3934
  52   2.0000      -0.580174       -15.7873
  53   2.0000      -0.565484       -15.3876
  54   2.0000      -0.549505       -14.9528
  55   2.0000      -0.546252       -14.8643
  56   2.0000      -0.544025       -14.8037
  57   2.0000      -0.535998       -14.5853
  58   2.0000      -0.521668       -14.1953
  59   2.0000      -0.515736       -14.0339
  60   2.0000      -0.512575       -13.9479
  61   2.0000      -0.505950       -13.7676
  62   2.0000      -0.497552       -13.5391
  63   2.0000      -0.492681       -13.4065
  64   2.0000      -0.475547       -12.9403
  65   2.0000      -0.448685       -12.2093
  66   2.0000      -0.434325       -11.8186
  67   2.0000      -0.430894       -11.7252
  68   2.0000      -0.430688       -11.7196
  69   2.0000      -0.424597       -11.5539
  70   2.0000      -0.411956       -11.2099
  71   2.0000      -0.394999       -10.7485
  72   2.0000      -0.391922       -10.6647
  73   2.0000      -0.372251       -10.1295
  74   2.0000      -0.360980        -9.8228
  75   2.0000      -0.351187        -9.5563
  76   2.0000      -0.334350        -9.0981
  77   2.0000      -0.323544        -8.8041
  78   2.0000      -0.322144        -8.7660
  79   2.0000      -0.314055        -8.5459
  80   0.0000      -0.038639        -1.0514
  81   0.0000      -0.021696        -0.5904
  82   0.0000      -0.000229        -0.0062
  83   0.0000       0.009865         0.2685
  84   0.0000       0.033242         0.9046

MULLIKEN ATOMIC CHARGES
-----------------------
   0 O :   -0.417622
   1 C :    0.331318
   2 N :   -0.206604
   3 O :   -0.220236
   4 C :    0.381503
   5 C :    0.048843
   6 C :   -0.201622
   7 C :   -0.162369
   8 C :    0.058783
   9 Br:   -0.094848
  10 C :   -0.164033
  11 C :   -0.187987
  12 O :   -0.355246
  13 C :    0.075654
  14 C :   -0.212777
  15 C :   -0.162049
  16 C :   -0.158145
  17 C :   -0.171642
  18 C :   -0.218490
  19 H :    0.320459
  20 H :    0.196156
  21 H :    0.200288
  22 H :    0.199949
  23 H :    0.193585
  24 H :    0.186161
  25 H :    0.180741
  26 H :    0.181040
  27 H :    0.180790
  28 H :    0.198400
Sum of atomic charges:   -0.0000000

LOEWDIN ATOMIC CHARGES
----------------------
   0 O :    0.061505
   1 C :   -0.417292
   2 N :    0.066106
   3 O :    0.223453
   4 C :   -0.427493
   5 C :   -0.131906
   6 C :   -0.075000
   7 C :   -0.132123
   8 C :   -0.378567
   9 Br:    0.356186
  10 C :   -0.131663
  11 C :   -0.066672
  12 O :    0.113700
  13 C :   -0.131530
  14 C :   -0.087989
  15 C :   -0.132836
  16 C :   -0.124449
  17 C :   -0.133758
  18 C :   -0.100134
  19 H :    0.205366
  20 H :    0.165477
  21 H :    0.161692
  22 H :    0.161634
  23 H :    0.166812
  24 H :    0.160927
  25 H :    0.156028
  26 H :    0.155944
  27 H :    0.156263
  28 H :    0.160319

  Mayer bond orders larger than 0.100000
B(  0-O ,  1-C ) :   1.9865 B(  1-C ,  2-N ) :   1.1358 B(  1-C , 13-C ) :   0.9718
B(  2-N ,  3-O ) :   0.8658 B(  2-N , 19-H ) :   0.8702 B(  3-O ,  4-C ) :   1.0723
B(  4-C ,  5-C ) :   1.0136 B(  4-C , 12-O ) :   2.0224 B(  5-C ,  6-C ) :   1.3716
B(  5-C , 11-C ) :   1.3674 B(  6-C ,  7-C ) :   1.4603 B(  6-C , 20-H ) :   0.9275
B(  7-C ,  8-C ) :   1.3522 B(  7-C , 21-H ) :   0.9331 B(  8-C ,  9-Br) :   1.1066
B(  8-C , 10-C ) :   1.3513 B( 10-C , 11-C ) :   1.4656 B( 10-C , 22-H ) :   0.9360
B( 11-C , 23-H ) :   0.9248 B( 13-C , 14-C ) :   1.3740 B( 13-C , 18-C ) :   1.3692
B( 14-C , 15-C ) :   1.4583 B( 14-C , 24-H ) :   0.9303 B( 15-C , 16-C ) :   1.4112
B( 15-C , 25-H ) :   0.9536 B( 16-C , 17-C ) :   1.4193 B( 16-C , 26-H ) :   0.9503
B( 17-C , 18-C ) :   1.4481 B( 17-C , 27-H ) :   0.9516 B( 18-C , 28-H ) :   0.9272

FINAL SINGLE POINT ENERGY     -3394.112663407032

DIPOLE MOMENT
-------------

Method             : SCF
Type of density    : Electron Density
Multiplicity       :   1
Irrep              :   0
Energy             : -3394.1126634070324144 Eh
Relativity type    :
Basis              : AO
                                X                 Y                 Z
Electronic contribution:    -74.898243487      -1.398024151       0.673001388
Nuclear contribution   :     75.956805512       0.020929797       0.027361128
                        -----------------------------------------
Total Dipole Moment    :      1.058562025      -1.377094354       0.700362515
                        -----------------------------------------
Magnitude (a.u.)       :      1.872818751
Magnitude (Debye)      :      4.760326955

VIBRATIONAL FREQUENCIES
-----------------------

Scaling factor for frequencies =  1.000000000  (already applied!)

     0:       0.00 cm**-1
     1:       0.00 cm**-1
     2:       0.00 cm**-1
     3:       0.00 cm**-1
     4:       0.00 cm**-1
     5:       0.00 cm**-1
     6:      18.97 cm**-1
     7:      29.62 cm**-1
     8:      35.84 cm**-1
     9:      50.03 cm**-1
    10:      77.87 cm**-1
    11:      97.93 cm**-1
    12:     111.73 cm**-1
    13:     156.46 cm**-1
    14:     177.38 cm**-1
    15:     225.92 cm**-1
    16:     255.54 cm**-1
    17:     273.65 cm**-1
    18:     332.56 cm**-1
    19:     337.02 cm**-1
    20:     385.97 cm**-1
    21:     413.19 cm**-1
    22:     414.40 cm**-1
    23:     429.07 cm**-1
    24:     457.26 cm**-1
    25:     488.86 cm**-1
    26:     494.21 cm**-1
    27:     505.71 cm**-1
    28:     538.67 cm**-1
    29:     629.58 cm**-1
    30:     638.56 cm**-1
    31:     693.83 cm**-1
    32:     708.67 cm**-1
    33:     715.31 cm**-1
    34:     725.43 cm**-1
    35:     744.19 cm**-1
    36:     778.64 cm**-1
    37:     822.63 cm**-1
    38:     864.86 cm**-1
    39:     876.69 cm**-1
    40:     882.05 cm**-1
    41:     884.40 cm**-1
    42:     931.05 cm**-1
    43:     975.04 cm**-1
    44:    1011.51 cm**-1
    45:    1019.38 cm**-1
    46:    1019.57 cm**-1
    47:    1020.89 cm**-1
    48:    1022.87 cm**-1
    49:    1045.13 cm**-1
    50:    1052.19 cm**-1
    51:    1063.23 cm**-1
    52:    1092.72 cm**-1
    53:    1103.77 cm**-1
    54:    1117.48 cm**-1
    55:    1135.92 cm**-1
    56:    1174.87 cm**-1
    57:    1196.02 cm**-1
    58:    1200.64 cm**-1
    59:    1216.78 cm**-1
    60:    1277.33 cm**-1
    61:    1311.38 cm**-1
    62:    1314.22 cm**-1
    63:    1330.72 cm**-1
    64:    1331.85 cm**-1
    65:    1358.51 cm**-1
    66:    1440.27 cm**-1
    67:    1486.63 cm**-1
    68:    1506.65 cm**-1
    69:    1530.93 cm**-1
    70:    1546.00 cm**-1
    71:    1642.90 cm**-1
    72:    1657.84 cm**-1
    73:    1657.94 cm**-1
    74:    1675.07 cm**-1
    75:    1765.96 cm**-1
    76:    1840.78 cm**-1
    77:    3209.42 cm**-1
    78:    3216.24 cm**-1
    79:    3222.07 cm**-1
    80:    3227.38 cm**-1
    81:    3229.01 cm**-1
    82:    3231.88 cm**-1
    83:    3233.88 cm**-1
    84:    3240.09 cm**-1
    85:    3246.38 cm**-1
    86:    3566.83 cm**-1

IR SPECTRUM
-----------

 Mode   freq       eps      Int      T**2         TX        TY        TZ
       cm**-1   L/(mol*cm) km/mol    a.u.
----------------------------------------------------------------------------
  6:     18.97   0.000240    1.21  0.003954  ( 0.041595  0.037378 -0.028746)
  7:     29.62   0.000090    0.45  0.000946  (-0.003742 -0.026312 -0.015486)
  8:     35.84   0.000518    2.62  0.004509  ( 0.004379 -0.049096 -0.045598)
  9:     50.03   0.000307    1.55  0.001913  ( 0.001715  0.011659  0.042121)
 10:     77.87   0.000838    4.23  0.003358  ( 0.018147  0.017630 -0.052130)
 11:     97.93   0.000273    1.38  0.000870  (-0.003602 -0.027401  0.010289)
 12:    111.73   0.000745    3.77  0.002082  ( 0.019141 -0.037616 -0.017343)
 13:    156.46   0.000588    2.97  0.001174  (-0.033027 -0.008380  0.003568)
 14:    177.38   0.001460    7.38  0.002569  ( 0.031009 -0.033949 -0.021337)
 15:    225.92   0.001082    5.47  0.001495  (-0.013398 -0.032036 -0.017011)
 16:    255.54   0.002825   14.28  0.003450  (-0.024307 -0.053375  0.003256)
 17:    273.65   0.000215    1.08  0.000245  ( 0.008342 -0.007463 -0.010930)
 18:    332.56   0.002062   10.42  0.001935  ( 0.016702  0.040176  0.006449)
 19:    337.02   0.002619   13.24  0.002425  (-0.001075  0.040676  0.027740)
 20:    385.97   0.012613   63.74  0.010197  (-0.093716  0.028346  0.024723)
 21:    413.19   0.000258    1.30  0.000195  ( 0.008167  0.011176  0.001754)
 22:    414.40   0.000006    0.03  0.000005  ( 0.000597 -0.001918  0.000737)
 23:    429.07   0.001072    5.42  0.000780  (-0.006610  0.016093  0.021842)
 24:    457.26   0.010683   53.99  0.007291  (-0.017192 -0.083443 -0.005693)
 25:    488.86   0.010246   51.78  0.006541  (-0.021717 -0.075320  0.019901)
 26:    494.21   0.025804  130.40  0.016294  (-0.007958 -0.127328 -0.004216)
 27:    505.71   0.003215   16.25  0.001984  (-0.040852  0.006127 -0.016653)
 28:    538.67   0.008770   44.32  0.005080  (-0.043648 -0.049629  0.026689)
 29:    629.58   0.000064    0.32  0.000032  ( 0.005607  0.000552 -0.000358)
 30:    638.56   0.000637    3.22  0.000312  (-0.008902  0.008506  0.012646)
 31:    693.83   0.004646   23.48  0.002090  ( 0.041573  0.018413 -0.004733)
 32:    708.67   0.008159   41.23  0.003593  ( 0.012081  0.031167 -0.049753)
 33:    715.31   0.011774   59.50  0.005137  ( 0.008348  0.004599 -0.071034)
 34:    725.43   0.013391   67.67  0.005761  (-0.012173  0.026778  0.069967)
 35:    744.19   0.005345   27.01  0.002241  ( 0.020058  0.012595  0.040992)
 36:    778.64   0.011559   58.41  0.004632  (-0.000105 -0.055623  0.039223)
 37:    822.63   0.003927   19.85  0.001490  (-0.007674 -0.020620  0.031713)
 38:    864.86   0.000079    0.40  0.000029  ( 0.000041  0.004762 -0.002427)
 39:    876.69   0.000222    1.12  0.000079  (-0.008385 -0.002823  0.000873)
 40:    882.05   0.002080   10.51  0.000736  ( 0.000575 -0.026485  0.005842)
 41:    884.40   0.009965   50.36  0.003516  (-0.014287 -0.041842  0.039512)
 42:    931.05   0.007488   37.84  0.002510  ( 0.016943  0.046276  0.009011)
 43:    975.04   0.000967    4.89  0.000309  ( 0.006682  0.008487 -0.013884)
 44:   1011.51   0.000004    0.02  0.000001  (-0.000015  0.000880  0.000640)
 45:   1019.38   0.002315   11.70  0.000709  (-0.026589  0.000017  0.001316)
 46:   1019.57   0.004590   23.20  0.001405  ( 0.035714 -0.008475 -0.007593)
 47:   1020.89   0.018375   92.86  0.005617  ( 0.072097 -0.011599 -0.016858)
 48:   1022.87   0.019086   96.45  0.005823  ( 0.074117 -0.010482 -0.014818)
 49:   1045.13   0.000178    0.90  0.000053  ( 0.005245  0.005031  0.000508)
 50:   1052.19   0.005176   26.16  0.001535  ( 0.021326  0.023470  0.023010)
 51:   1063.23   0.017825   90.08  0.005232  (-0.060644  0.019031  0.034522)
 52:   1092.72   0.057146  288.79  0.016320  ( 0.116962 -0.002871 -0.051302)
 53:   1103.77   0.011642   58.83  0.003291  (-0.056892  0.005531 -0.004917)
 54:   1117.48   0.004149   20.97  0.001159  (-0.021283  0.025385  0.007823)
 55:   1135.92   0.000742    3.75  0.000204  ( 0.008761  0.008682  0.007187)
 56:   1174.87   0.000526    2.66  0.000140  ( 0.008137 -0.008531 -0.000802)
 57:   1196.02   0.002673   13.51  0.000698  ( 0.026294 -0.001650 -0.001859)
 58:   1200.64   0.013941   70.45  0.003623  ( 0.059745 -0.002983 -0.006713)
 59:   1216.78   0.018879   95.41  0.004842  ( 0.068143 -0.007360 -0.012007)
 60:   1277.33   0.131798  666.05  0.032199  (-0.172515  0.019548  0.045342)
 61:   1311.38   0.011627   58.76  0.002767  ( 0.019618  0.045670  0.017210)
 62:   1314.22   0.008142   41.15  0.001933  (-0.009206  0.042548 -0.006186)
 63:   1330.72   0.002083   10.53  0.000489  (-0.021194 -0.005133 -0.003606)
 64:   1331.85   0.000739    3.73  0.000173  ( 0.012910  0.000891  0.002370)
 65:   1358.51   0.000184    0.93  0.000042  (-0.005148  0.002084  0.003372)
 66:   1440.27   0.008486   42.89  0.001839  ( 0.026827 -0.020732 -0.026253)
 67:   1486.63   0.005790   29.26  0.001215  (-0.031863 -0.007153  0.012204)
 68:   1506.65   0.042101  212.76  0.008720  (-0.073794 -0.055194  0.015103)
 69:   1530.93   0.006214   31.40  0.001267  ( 0.032128  0.001351  0.015249)
 70:   1546.00   0.006424   32.46  0.001297  (-0.018385 -0.027693  0.013849)
 71:   1642.90   0.000223    1.13  0.000042  (-0.001284  0.002707  0.005773)
 72:   1657.84   0.014800   74.79  0.002786  (-0.050351  0.012480 -0.009739)
 73:   1657.94   0.031442  158.90  0.005918  ( 0.076852  0.002528  0.002364)
 74:   1675.07   0.004991   25.22  0.000930  ( 0.030044  0.004960  0.001578)
 75:   1765.96   0.129385  653.86  0.022864  (-0.090674  0.081650 -0.089305)
 76:   1840.78   0.109997  555.88  0.018648  (-0.077047 -0.074859 -0.084306)
 77:   3209.42   0.000003    0.01  0.000000  ( 0.000156  0.000398  0.000252)
 78:   3216.24   0.000406    2.05  0.000039  ( 0.004641 -0.004176  0.000613)
 79:   3222.07   0.000406    2.05  0.000039  (-0.004777 -0.004058 -0.000095)
 80:   3227.38   0.000252    1.27  0.000024  ( 0.004903  0.000211  0.000553)
 81:   3229.01   0.000628    3.17  0.000061  ( 0.001813 -0.007530  0.000846)
 82:   3231.88   0.000067    0.34  0.000006  ( 0.001503  0.001006  0.001784)
 83:   3233.88   0.000866    4.38  0.000084  ( 0.008839  0.002091  0.001043)
 84:   3240.09   0.000262    1.32  0.000025  ( 0.000822  0.003205  0.003780)
 85:   3246.38   0.000260    1.31  0.000025  ( 0.002332 -0.002820 -0.003409)
 86:   3566.83   0.027396  138.45  0.002397  ( 0.003668 -0.030723  0.037941)

--------------------------
THERMOCHEMISTRY AT 298.15K
--------------------------

Temperature         ...   298.15 K
Pressure            ...     1.00 atm
Total Mass          ...   320.14 AMU
Quasi RRHO          ...     True
Cut-Off Frequency   ...     1.00 cm^-1

Throughout the following assumptions are being made:
  (1) The electronic state is orbitally nondegenerate
  (2) There are no thermally accessible electronically excited states
  (3) Hindered rotations indicated by low frequency modes are not
      treated as such but are treated as vibrations and this may
      cause some error
  (4) All equations used are the standard statistical mechanics
      equations for an ideal gas
  (5) All vibrations are strictly harmonic

freq.      18.97  E(vib)   ...       0.57
freq.      29.62  E(vib)   ...       0.55
freq.      35.84  E(vib)   ...       0.54
freq.      50.03  E(vib)   ...       0.52
freq.      77.87  E(vib)   ...       0.49
freq.      97.93  E(vib)   ...       0.46
freq.     111.73  E(vib)   ...       0.45
freq.     156.46  E(vib)   ...       0.40
freq.     177.38  E(vib)   ...       0.37
freq.     225.92  E(vib)   ...       0.33
freq.     255.54  E(vib)   ...       0.30
freq.     273.65  E(vib)   ...       0.28
freq.     332.56  E(vib)   ...       0.24
freq.     337.02  E(vib)   ...       0.24
freq.     385.97  E(vib)   ...       0.20
freq.     413.19  E(vib)   ...       0.19
freq.     414.40  E(vib)   ...       0.19
freq.     429.07  E(vib)   ...       0.18
freq.     457.26  E(vib)   ...       0.16
freq.     488.86  E(vib)   ...       0.15
freq.     494.21  E(vib)   ...       0.14
freq.     505.71  E(vib)   ...       0.14
freq.     538.67  E(vib)   ...       0.12
freq.     629.58  E(vib)   ...       0.09
freq.     638.56  E(vib)   ...       0.09
freq.     693.83  E(vib)   ...       0.07
freq.     708.67  E(vib)   ...       0.07
freq.     715.31  E(vib)   ...       0.07
freq.     725.43  E(vib)   ...       0.06
freq.     744.19  E(vib)   ...       0.06
freq.     778.64  E(vib)   ...       0.05
freq.     822.63  E(vib)   ...       0.05
freq.     864.86  E(vib)   ...       0.04
freq.     876.69  E(vib)   ...       0.04
freq.     882.05  E(vib)   ...       0.04
freq.     884.40  E(vib)   ...       0.04
freq.     931.05  E(vib)   ...       0.03
freq.     975.04  E(vib)   ...       0.03
freq.    1011.51  E(vib)   ...       0.02
freq.    1019.38  E(vib)   ...       0.02
freq.    1019.57  E(vib)   ...       0.02
freq.    1020.89  E(vib)   ...       0.02
freq.    1022.87  E(vib)   ...       0.02
freq.    1045.13  E(vib)   ...       0.02
freq.    1052.19  E(vib)   ...       0.02
freq.    1063.23  E(vib)   ...       0.02
freq.    1092.72  E(vib)   ...       0.02
freq.    1103.77  E(vib)   ...       0.02
freq.    1117.48  E(vib)   ...       0.01
freq.    1135.92  E(vib)   ...       0.01
freq.    1174.87  E(vib)   ...       0.01
freq.    1196.02  E(vib)   ...       0.01
freq.    1200.64  E(vib)   ...       0.01
freq.    1216.78  E(vib)   ...       0.01
freq.    1277.33  E(vib)   ...       0.01
freq.    1311.38  E(vib)   ...       0.01
freq.    1314.22  E(vib)   ...       0.01
freq.    1330.72  E(vib)   ...       0.01
freq.    1331.85  E(vib)   ...       0.01
freq.    1358.51  E(vib)   ...       0.01
freq.    1440.27  E(vib)   ...       0.00
freq.    1486.63  E(vib)   ...       0.00
freq.    1506.65  E(vib)   ...       0.00
freq.    1530.93  E(vib)   ...       0.00
freq.    1546.00  E(vib)   ...       0.00
freq.    1642.90  E(vib)   ...       0.00
freq.    1657.84  E(vib)   ...       0.00
freq.    1657.94  E(vib)   ...       0.00
freq.    1675.07  E(vib)   ...       0.00
freq.    1765.96  E(vib)   ...       0.00
freq.    1840.78  E(vib)   ...       0.00
freq.    3209.42  E(vib)   ...       0.00
freq.    3216.24  E(vib)   ...       0.00
freq.    3222.07  E(vib)   ...       0.00
freq.    3227.38  E(vib)   ...       0.00
freq.    3229.01  E(vib)   ...       0.00
freq.    3231.88  E(vib)   ...       0.00
freq.    3233.88  E(vib)   ...       0.00
freq.    3240.09  E(vib)   ...       0.00
freq.    3246.38  E(vib)   ...       0.00
freq.    3566.83  E(vib)   ...       0.00

------------
INNER ENERGY
------------

The inner energy is: U= E(el) + E(ZPE) + E(vib) + E(rot) + E(trans)
    E(el)   - is the total energy from the electronic structure calculation
              = E(kin-el) + E(nuc-el) + E(el-el) + E(nuc-nuc)
    E(ZPE)  - the the zero temperature vibrational energy from the frequency calculation
    E(vib)  - the the finite temperature correction to E(ZPE) due to population
              of excited vibrational states
    E(rot)  - is the rotational thermal energy
    E(trans)- is the translational thermal energy

Summary of contributions to the inner energy U:
Electronic energy                ...  -3394.11266341 Eh
Zero point energy                ...      0.21407921 Eh     134.34 kcal/mol
Thermal vibrational correction   ...      0.01330182 Eh       8.35 kcal/mol
Thermal rotational correction    ...      0.00141627 Eh       0.89 kcal/mol
Thermal translational correction ...      0.00141627 Eh       0.89 kcal/mol
-----------------------------------------------------------------------
Total thermal energy                  -3393.88244984 Eh

Summary of corrections to the electronic energy:
(perhaps to be used in another calculation)
Total thermal correction                  0.01613436 Eh      10.12 kcal/mol
Non-thermal (ZPE) correction              0.21407921 Eh     134.34 kcal/mol
-----------------------------------------------------------------------
Total correction                          0.23021357 Eh     144.46 kcal/mol

--------
ENTHALPY
--------

The enthalpy is H = U + kB*T
                kB is Boltzmann's constant
Total thermal energy              ...  -3393.88244984 Eh
Thermal Enthalpy correction       ...      0.00094421 Eh       0.59 kcal/mol
-----------------------------------------------------------------------
Total Enthalpy                    ...  -3393.88150563 Eh

Note: Only C1 symmetry has been detected, increase convergence thresholds
      if your molecule has a higher symmetry. Symmetry factor of 1.0 is
      used for the rotational entropy correction.

Note: Rotational entropy computed according to Herzberg
Infrared and Raman Spectra, Chapter V,1, Van Nostrand Reinhold, 1945
Point Group:  C1, Symmetry Number:   1
Rotational constants in cm-1:     0.053539     0.002678     0.002651

Vibrational entropy computed according to the QRRHO of S. Grimme
Chem.Eur.J. 2012 18 9955 using a reference frequency of 100.0 cm-1

-------
ENTROPY
-------

                             ****ORCA TERMINATED NORMALLY****
TOTAL RUN TIME: 0 days 1 hours 43 minutes 54 seconds 893 msec
